 Entering Link 1 = D:\Gaussian\G16W\l1.exe PID=     32548.
  
 Copyright (c) 1988,1990,1992,1993,1995,1998,2003,2009,2016,
            Gaussian, Inc.  All Rights Reserved.
  
 This is part of the Gaussian(R) 16 program.  It is based on
 the Gaussian(R) 09 system (copyright 2009, Gaussian, Inc.),
 the Gaussian(R) 03 system (copyright 2003, Gaussian, Inc.),
 the Gaussian(R) 98 system (copyright 1998, Gaussian, Inc.),
 the Gaussian(R) 94 system (copyright 1995, Gaussian, Inc.),
 the Gaussian 92(TM) system (copyright 1992, Gaussian, Inc.),
 the Gaussian 90(TM) system (copyright 1990, Gaussian, Inc.),
 the Gaussian 88(TM) system (copyright 1988, Gaussian, Inc.),
 the Gaussian 86(TM) system (copyright 1986, Carnegie Mellon
 University), and the Gaussian 82(TM) system (copyright 1983,
 Carnegie Mellon University). Gaussian is a federally registered
 trademark of Gaussian, Inc.
  
 This software contains proprietary and confidential information,
 including trade secrets, belonging to Gaussian, Inc.
  
 This software is provided under written license and may be
 used, copied, transmitted, or stored only in accord with that
 written license.
  
 The following legend is applicable only to US Government
 contracts under FAR:
  
                    RESTRICTED RIGHTS LEGEND
  
 Use, reproduction and disclosure by the US Government is
 subject to restrictions as set forth in subparagraphs (a)
 and (c) of the Commercial Computer Software - Restricted
 Rights clause in FAR 52.227-19.
  
 Gaussian, Inc.
 340 Quinnipiac St., Bldg. 40, Wallingford CT 06492
  
  
 ---------------------------------------------------------------
 Warning -- This program may not be used in any manner that
 competes with the business of Gaussian, Inc. or will provide
 assistance to any competitor of Gaussian, Inc.  The licensee
 of this program is prohibited from giving any competitor of
 Gaussian, Inc. access to this program.  By using this program,
 the user acknowledges that Gaussian, Inc. is engaged in the
 business of creating and licensing software in the field of
 computational chemistry and represents and warrants to the
 licensee that it is not a competitor of Gaussian, Inc. and that
 it will not use this program in any manner prohibited above.
 ---------------------------------------------------------------
  

 Cite this work as:
 Gaussian 16, Revision A.03,
 M. J. Frisch, G. W. Trucks, H. B. Schlegel, G. E. Scuseria, 
 M. A. Robb, J. R. Cheeseman, G. Scalmani, V. Barone, 
 G. A. Petersson, H. Nakatsuji, X. Li, M. Caricato, A. V. Marenich, 
 J. Bloino, B. G. Janesko, R. Gomperts, B. Mennucci, H. P. Hratchian, 
 J. V. Ortiz, A. F. Izmaylov, J. L. Sonnenberg, D. Williams-Young, 
 F. Ding, F. Lipparini, F. Egidi, J. Goings, B. Peng, A. Petrone, 
 T. Henderson, D. Ranasinghe, V. G. Zakrzewski, J. Gao, N. Rega, 
 G. Zheng, W. Liang, M. Hada, M. Ehara, K. Toyota, R. Fukuda, 
 J. Hasegawa, M. Ishida, T. Nakajima, Y. Honda, O. Kitao, H. Nakai, 
 T. Vreven, K. Throssell, J. A. Montgomery, Jr., J. E. Peralta, 
 F. Ogliaro, M. J. Bearpark, J. J. Heyd, E. N. Brothers, K. N. Kudin, 
 V. N. Staroverov, T. A. Keith, R. Kobayashi, J. Normand, 
 K. Raghavachari, A. P. Rendell, J. C. Burant, S. S. Iyengar, 
 J. Tomasi, M. Cossi, J. M. Millam, M. Klene, C. Adamo, R. Cammi, 
 J. W. Ochterski, R. L. Martin, K. Morokuma, O. Farkas, 
 J. B. Foresman, and D. J. Fox, Gaussian, Inc., Wallingford CT, 2016.
 
 ******************************************
 Gaussian 16:  EM64W-G16RevA.03 17-Dec-2016
                02-Dec-2025 
 ******************************************
 %nprocshared=14
 Will use up to   14 processors via shared memory.
 %mem=80GB
 %chk=SR-16.chk
 ---------------------------------------------------------
 # ub3lyp/6-311g(d,p) geom=connectivity temperature=823.15
 ---------------------------------------------------------
 1/38=1,57=2,112=823150,172=1/1;
 2/12=2,17=6,18=5,40=1/2;
 3/5=4,6=6,7=101,11=2,25=1,30=1,74=-5,116=2/1,2,3;
 4//1;
 5/5=2,38=5/2;
 6/7=2,8=2,9=2,10=2,28=1/1;
 99/5=1,9=1/99;
 -------------------
 Title Card Required
 -------------------
 Symbolic Z-matrix:
 Charge =  0 Multiplicity = 1
 C                     1.89986  -0.01934  -0.00009 
 C                     0.96939  -1.05574  -0.00009 
 C                    -0.40244  -0.7914   -0.00002 
 C                    -0.85243   0.55527   0.00002 
 C                     0.09746   1.58986   0. 
 C                     1.45143   1.31498  -0.00006 
 H                    -0.2523    2.61778   0. 
 O                    -3.16132   0.00414   0. 
 O                    -1.25957  -1.82043   0.00002 
 H                     1.28774  -2.09218  -0.00015 
 C                    -2.27305   0.85199   0.00003 
 H                    -2.54169   1.92563   0.00012 
 H                    -2.169    -1.44412   0.0001 
 H                     2.17321   2.12327  -0.0001 
 C                     3.37526  -0.33392   0.00009 
 H                     3.64929  -0.92041   0.88203 
 H                     3.64861  -0.92513  -0.87888 
 H                     3.97832   0.57527  -0.00253 
 
                          Input orientation:                          
 ---------------------------------------------------------------------
 Center     Atomic      Atomic             Coordinates (Angstroms)
 Number     Number       Type             X           Y           Z
 ---------------------------------------------------------------------
      1          6           0        1.899863   -0.019337   -0.000094
      2          6           0        0.969390   -1.055743   -0.000091
      3          6           0       -0.402437   -0.791396   -0.000017
      4          6           0       -0.852429    0.555274    0.000019
      5          6           0        0.097462    1.589862    0.000002
      6          6           0        1.451428    1.314980   -0.000060
      7          1           0       -0.252304    2.617780    0.000002
      8          8           0       -3.161317    0.004136    0.000004
      9          8           0       -1.259569   -1.820430    0.000017
     10          1           0        1.287742   -2.092184   -0.000149
     11          6           0       -2.273050    0.851991    0.000029
     12          1           0       -2.541694    1.925634    0.000120
     13          1           0       -2.168995   -1.444120    0.000102
     14          1           0        2.173214    2.123274   -0.000099
     15          6           0        3.375258   -0.333924    0.000086
     16          1           0        3.649291   -0.920409    0.882027
     17          1           0        3.648608   -0.925132   -0.878882
     18          1           0        3.978316    0.575267   -0.002528
 ---------------------------------------------------------------------
                    Distance matrix (angstroms):
                    1          2          3          4          5
     1  C    0.000000
     2  C    1.392809   0.000000
     3  C    2.428304   1.397064   0.000000
     4  C    2.811635   2.431954   1.419864   0.000000
     5  C    2.416231   2.785585   2.433164   1.404516   0.000000
     6  C    1.407656   2.419233   2.806000   2.425883   1.381588
     7  H    3.403852   3.871344   3.412480   2.148041   1.085795
     8  O    5.061234   4.264514   2.871287   2.373756   3.624109
     9  O    3.636749   2.356481   1.339248   2.410339   3.670371
    10  H    2.161339   1.084232   2.132781   3.404316   3.869655
    11  C    4.262912   3.762030   2.489963   1.451277   2.482696
    12  H    4.848746   4.606118   3.458131   2.175202   2.660430
    13  H    4.311103   3.162325   1.883289   2.393935   3.787067
    14  H    2.159977   3.399315   3.889637   3.407806   2.143193
    15  C    1.508561   2.511817   3.805294   4.320186   3.800645
    16  H    2.156517   2.824591   4.148632   4.818824   4.437896
    17  H    2.156581   2.822683   4.147440   4.819067   4.439400
    18  H    2.161834   3.422548   4.588984   4.830787   4.011289
                    6          7          8          9         10
     6  C    0.000000
     7  H    2.144759   0.000000
     8  O    4.795386   3.910689   0.000000
     9  O    4.144913   4.551076   2.635467   0.000000
    10  H    3.411094   4.955351   4.918199   2.561766   0.000000
    11  C    3.753145   2.683547   1.227956   2.858142   4.620325
    12  H    4.039545   2.391730   2.018932   3.959399   5.550445
    13  H    4.551933   4.491407   1.755605   0.984208   3.516961
    14  H    1.083658   2.475414   5.740032   5.228461   4.307452
    15  C    2.533773   4.676726   6.545311   4.867373   2.729323
    16  H    3.256631   5.340336   6.929439   5.068026   2.779965
    17  H    3.258532   5.342450   6.929001   5.065987   2.776305
    18  H    2.632935   4.697873   7.162441   5.759758   3.788732
                   11         12         13         14         15
    11  C    0.000000
    12  H    1.106742   0.000000
    13  H    2.298468   3.390302   0.000000
    14  H    4.624438   4.719049   5.619705   0.000000
    15  C    5.771462   6.333713   5.654315   2.735458   0.000000
    16  H    6.244473   6.870663   5.908004   3.495848   1.094020
    17  H    6.244733   6.871634   5.906477   3.498832   1.093998
    18  H    6.257488   6.658380   6.470499   2.377967   1.091015
                   16         17         18
    16  H    0.000000
    17  H    1.760915   0.000000
    18  H    1.768542   1.768587   0.000000
 Stoichiometry    C8H8O2
 Framework group  C1[X(C8H8O2)]
 Deg. of freedom    48
 Full point group                 C1      NOp   1
 Largest Abelian subgroup         C1      NOp   1
 Largest concise Abelian subgroup C1      NOp   1
                         Standard orientation:                         
 ---------------------------------------------------------------------
 Center     Atomic      Atomic             Coordinates (Angstroms)
 Number     Number       Type             X           Y           Z
 ---------------------------------------------------------------------
      1          6           0        1.899863   -0.019337   -0.000094
      2          6           0        0.969390   -1.055743   -0.000091
      3          6           0       -0.402437   -0.791396   -0.000017
      4          6           0       -0.852429    0.555274    0.000019
      5          6           0        0.097462    1.589862    0.000002
      6          6           0        1.451428    1.314980   -0.000060
      7          1           0       -0.252304    2.617780    0.000002
      8          8           0       -3.161317    0.004136    0.000004
      9          8           0       -1.259569   -1.820430    0.000017
     10          1           0        1.287742   -2.092184   -0.000149
     11          6           0       -2.273050    0.851991    0.000029
     12          1           0       -2.541694    1.925634    0.000120
     13          1           0       -2.168995   -1.444120    0.000102
     14          1           0        2.173214    2.123274   -0.000099
     15          6           0        3.375258   -0.333924    0.000086
     16          1           0        3.649291   -0.920409    0.882027
     17          1           0        3.648608   -0.925132   -0.878882
     18          1           0        3.978316    0.575267   -0.002528
 ---------------------------------------------------------------------
 Rotational constants (GHZ):           3.0823363           0.9427718           0.7251907
 Standard basis: 6-311G(d,p) (5D, 7F)
 There are   238 symmetry adapted cartesian basis functions of A   symmetry.
 There are   228 symmetry adapted basis functions of A   symmetry.
   228 basis functions,   384 primitive gaussians,   238 cartesian basis functions
    36 alpha electrons       36 beta electrons
       nuclear repulsion energy       492.6034097605 Hartrees.
 NAtoms=   18 NActive=   18 NUniq=   18 SFac= 1.00D+00 NAtFMM=   60 NAOKFM=F Big=F
 Integral buffers will be    131072 words long.
 Raffenetti 2 integral format.
 Two-electron integral symmetry is turned on.
 One-electron integrals computed using PRISM.
 NBasis=   228 RedAO= T EigKep=  1.74D-04  NBF=   228
 NBsUse=   228 1.00D-06 EigRej= -1.00D+00 NBFU=   228
 ExpMin= 1.03D-01 ExpMax= 8.59D+03 ExpMxC= 1.30D+03 IAcc=3 IRadAn=         5 AccDes= 0.00D+00
 Harris functional with IExCor=  402 and IRadAn=       5 diagonalized for initial guess.
 HarFok:  IExCor=  402 AccDes= 0.00D+00 IRadAn=         5 IDoV= 1 UseB2=F ITyADJ=14
 ICtDFT=  3500011 ScaDFX=  1.000000  1.000000  1.000000  1.000000
 FoFCou: FMM=F IPFlag=           0 FMFlag=      100000 FMFlg1=           0
         NFxFlg=           0 DoJE=T BraDBF=F KetDBF=T FulRan=T
         wScrn=  0.000000 ICntrl=       500 IOpCl=  0 I1Cent=   200000004 NGrid=           0
         NMat0=    1 NMatS0=      1 NMatT0=    0 NMatD0=    1 NMtDS0=    0 NMtDT0=    0
 Petite list used in FoFCou.
 Initial guess <Sx>= 0.0000 <Sy>= 0.0000 <Sz>= 0.0000 <S**2>= 0.0000 S= 0.0000
 Requested convergence on RMS density matrix=1.00D-08 within 128 cycles.
 Requested convergence on MAX density matrix=1.00D-06.
 Requested convergence on             energy=1.00D-06.
 No special actions if energy rises.
 Integral accuracy reduced to 1.0D-05 until final iterations.
 Initial convergence to 1.0D-05 achieved.  Increase integral accuracy.
 SCF Done:  E(UB3LYP) =  -460.248146384     A.U. after   14 cycles
            NFock= 14  Conv=0.94D-08     -V/T= 2.0038
 <Sx>= 0.0000 <Sy>= 0.0000 <Sz>= 0.0000 <S**2>= 0.0000 S= 0.0000
 <L.S>= 0.000000000000E+00
 Annihilation of the first spin contaminant:
 S**2 before annihilation     0.0000,   after     0.0000

 **********************************************************************

            Population analysis using the SCF density.

 **********************************************************************

 Orbital symmetries:
 Alpha Orbitals:
       Occupied  (A) (A) (A) (A) (A) (A) (A) (A) (A) (A) (A) (A)
                 (A) (A) (A) (A) (A) (A) (A) (A) (A) (A) (A) (A)
                 (A) (A) (A) (A) (A) (A) (A) (A) (A) (A) (A) (A)
       Virtual   (A) (A) (A) (A) (A) (A) (A) (A) (A) (A) (A) (A)
                 (A) (A) (A) (A) (A) (A) (A) (A) (A) (A) (A) (A)
                 (A) (A) (A) (A) (A) (A) (A) (A) (A) (A) (A) (A)
                 (A) (A) (A) (A) (A) (A) (A) (A) (A) (A) (A) (A)
                 (A) (A) (A) (A) (A) (A) (A) (A) (A) (A) (A) (A)
                 (A) (A) (A) (A) (A) (A) (A) (A) (A) (A) (A) (A)
                 (A) (A) (A) (A) (A) (A) (A) (A) (A) (A) (A) (A)
                 (A) (A) (A) (A) (A) (A) (A) (A) (A) (A) (A) (A)
                 (A) (A) (A) (A) (A) (A) (A) (A) (A) (A) (A) (A)
                 (A) (A) (A) (A) (A) (A) (A) (A) (A) (A) (A) (A)
                 (A) (A) (A) (A) (A) (A) (A) (A) (A) (A) (A) (A)
                 (A) (A) (A) (A) (A) (A) (A) (A) (A) (A) (A) (A)
                 (A) (A) (A) (A) (A) (A) (A) (A) (A) (A) (A) (A)
                 (A) (A) (A) (A) (A) (A) (A) (A) (A) (A) (A) (A)
                 (A) (A) (A) (A) (A) (A) (A) (A) (A) (A) (A) (A)
                 (A) (A) (A) (A) (A) (A) (A) (A) (A) (A) (A) (A)
 Beta  Orbitals:
       Occupied  (A) (A) (A) (A) (A) (A) (A) (A) (A) (A) (A) (A)
                 (A) (A) (A) (A) (A) (A) (A) (A) (A) (A) (A) (A)
                 (A) (A) (A) (A) (A) (A) (A) (A) (A) (A) (A) (A)
       Virtual   (A) (A) (A) (A) (A) (A) (A) (A) (A) (A) (A) (A)
                 (A) (A) (A) (A) (A) (A) (A) (A) (A) (A) (A) (A)
                 (A) (A) (A) (A) (A) (A) (A) (A) (A) (A) (A) (A)
                 (A) (A) (A) (A) (A) (A) (A) (A) (A) (A) (A) (A)
                 (A) (A) (A) (A) (A) (A) (A) (A) (A) (A) (A) (A)
                 (A) (A) (A) (A) (A) (A) (A) (A) (A) (A) (A) (A)
                 (A) (A) (A) (A) (A) (A) (A) (A) (A) (A) (A) (A)
                 (A) (A) (A) (A) (A) (A) (A) (A) (A) (A) (A) (A)
                 (A) (A) (A) (A) (A) (A) (A) (A) (A) (A) (A) (A)
                 (A) (A) (A) (A) (A) (A) (A) (A) (A) (A) (A) (A)
                 (A) (A) (A) (A) (A) (A) (A) (A) (A) (A) (A) (A)
                 (A) (A) (A) (A) (A) (A) (A) (A) (A) (A) (A) (A)
                 (A) (A) (A) (A) (A) (A) (A) (A) (A) (A) (A) (A)
                 (A) (A) (A) (A) (A) (A) (A) (A) (A) (A) (A) (A)
                 (A) (A) (A) (A) (A) (A) (A) (A) (A) (A) (A) (A)
                 (A) (A) (A) (A) (A) (A) (A) (A) (A) (A) (A) (A)
 The electronic state is 1-A.
 Alpha  occ. eigenvalues --  -19.14710 -19.12876 -10.26988 -10.25589 -10.20684
 Alpha  occ. eigenvalues --  -10.19822 -10.19084 -10.18101 -10.18096 -10.17862
 Alpha  occ. eigenvalues --   -1.07911  -1.05125  -0.87531  -0.80069  -0.75837
 Alpha  occ. eigenvalues --   -0.72299  -0.63943  -0.62712  -0.61135  -0.52871
 Alpha  occ. eigenvalues --   -0.51895  -0.49311  -0.46593  -0.44989  -0.44496
 Alpha  occ. eigenvalues --   -0.44229  -0.42825  -0.41419  -0.39334  -0.38746
 Alpha  occ. eigenvalues --   -0.38367  -0.35794  -0.34545  -0.27573  -0.26850
 Alpha  occ. eigenvalues --   -0.24016
 Alpha virt. eigenvalues --   -0.07424  -0.01357   0.02528   0.04189   0.05068
 Alpha virt. eigenvalues --    0.07824   0.08587   0.09969   0.10772   0.11446
 Alpha virt. eigenvalues --    0.13632   0.16502   0.19008   0.20075   0.24301
 Alpha virt. eigenvalues --    0.25195   0.26724   0.29405   0.29945   0.30185
 Alpha virt. eigenvalues --    0.33373   0.34114   0.36259   0.36753   0.37916
 Alpha virt. eigenvalues --    0.38534   0.40977   0.41675   0.42400   0.43907
 Alpha virt. eigenvalues --    0.43968   0.44862   0.46842   0.48151   0.50556
 Alpha virt. eigenvalues --    0.51574   0.52453   0.55006   0.55419   0.56755
 Alpha virt. eigenvalues --    0.57423   0.58807   0.59322   0.60094   0.61733
 Alpha virt. eigenvalues --    0.64129   0.64263   0.66130   0.67768   0.73955
 Alpha virt. eigenvalues --    0.75540   0.76310   0.77473   0.78625   0.81759
 Alpha virt. eigenvalues --    0.82021   0.84845   0.85686   0.86575   0.88698
 Alpha virt. eigenvalues --    0.91978   0.93529   0.96419   0.99076   0.99307
 Alpha virt. eigenvalues --    1.01125   1.02815   1.04123   1.08518   1.10239
 Alpha virt. eigenvalues --    1.10920   1.15547   1.17817   1.21875   1.23078
 Alpha virt. eigenvalues --    1.32987   1.33635   1.36512   1.38733   1.41597
 Alpha virt. eigenvalues --    1.41773   1.44194   1.45593   1.46442   1.48256
 Alpha virt. eigenvalues --    1.48920   1.51561   1.51637   1.54258   1.54923
 Alpha virt. eigenvalues --    1.57407   1.58983   1.59816   1.60956   1.65066
 Alpha virt. eigenvalues --    1.66895   1.68958   1.72554   1.73098   1.75513
 Alpha virt. eigenvalues --    1.77551   1.78891   1.82524   1.84300   1.89342
 Alpha virt. eigenvalues --    1.90508   1.91841   1.92154   1.93767   1.94143
 Alpha virt. eigenvalues --    1.96392   2.00183   2.03679   2.06921   2.10695
 Alpha virt. eigenvalues --    2.12200   2.14438   2.16026   2.23839   2.28110
 Alpha virt. eigenvalues --    2.29347   2.30355   2.34557   2.34733   2.37369
 Alpha virt. eigenvalues --    2.42221   2.43489   2.49819   2.50037   2.51887
 Alpha virt. eigenvalues --    2.53225   2.54758   2.57215   2.60431   2.60996
 Alpha virt. eigenvalues --    2.62474   2.63349   2.65828   2.68256   2.70629
 Alpha virt. eigenvalues --    2.76701   2.78606   2.80512   2.83438   2.84866
 Alpha virt. eigenvalues --    2.87780   2.90416   2.94359   3.01959   3.04545
 Alpha virt. eigenvalues --    3.06449   3.09667   3.14511   3.15034   3.17621
 Alpha virt. eigenvalues --    3.18328   3.29896   3.30966   3.36145   3.39483
 Alpha virt. eigenvalues --    3.42247   3.48074   3.52168   3.59609   3.61719
 Alpha virt. eigenvalues --    3.64724   3.77286   3.80449   3.83335   3.85814
 Alpha virt. eigenvalues --    3.99296   4.10240   4.10990   4.24439   4.34762
 Alpha virt. eigenvalues --    4.81455   4.82254   4.85332   5.04628   5.35843
 Alpha virt. eigenvalues --    5.63305   5.75272  23.48516  23.83399  23.86775
 Alpha virt. eigenvalues --   23.88349  23.92585  24.00110  24.08615  24.15740
 Alpha virt. eigenvalues --   49.91748  49.95513
  Beta  occ. eigenvalues --  -19.14710 -19.12876 -10.26988 -10.25589 -10.20684
  Beta  occ. eigenvalues --  -10.19822 -10.19084 -10.18101 -10.18096 -10.17862
  Beta  occ. eigenvalues --   -1.07911  -1.05125  -0.87531  -0.80069  -0.75837
  Beta  occ. eigenvalues --   -0.72299  -0.63943  -0.62712  -0.61135  -0.52871
  Beta  occ. eigenvalues --   -0.51895  -0.49311  -0.46593  -0.44989  -0.44496
  Beta  occ. eigenvalues --   -0.44229  -0.42825  -0.41419  -0.39334  -0.38746
  Beta  occ. eigenvalues --   -0.38367  -0.35794  -0.34545  -0.27573  -0.26850
  Beta  occ. eigenvalues --   -0.24016
  Beta virt. eigenvalues --   -0.07424  -0.01357   0.02528   0.04189   0.05068
  Beta virt. eigenvalues --    0.07824   0.08587   0.09969   0.10772   0.11446
  Beta virt. eigenvalues --    0.13632   0.16502   0.19008   0.20075   0.24301
  Beta virt. eigenvalues --    0.25195   0.26724   0.29405   0.29945   0.30185
  Beta virt. eigenvalues --    0.33373   0.34114   0.36259   0.36753   0.37916
  Beta virt. eigenvalues --    0.38534   0.40977   0.41675   0.42400   0.43907
  Beta virt. eigenvalues --    0.43968   0.44862   0.46842   0.48151   0.50556
  Beta virt. eigenvalues --    0.51574   0.52453   0.55006   0.55419   0.56755
  Beta virt. eigenvalues --    0.57423   0.58807   0.59322   0.60094   0.61733
  Beta virt. eigenvalues --    0.64129   0.64263   0.66130   0.67768   0.73955
  Beta virt. eigenvalues --    0.75540   0.76310   0.77473   0.78625   0.81759
  Beta virt. eigenvalues --    0.82021   0.84845   0.85686   0.86575   0.88698
  Beta virt. eigenvalues --    0.91978   0.93529   0.96419   0.99076   0.99307
  Beta virt. eigenvalues --    1.01125   1.02815   1.04123   1.08518   1.10239
  Beta virt. eigenvalues --    1.10920   1.15547   1.17817   1.21875   1.23078
  Beta virt. eigenvalues --    1.32987   1.33635   1.36512   1.38733   1.41597
  Beta virt. eigenvalues --    1.41773   1.44194   1.45593   1.46442   1.48256
  Beta virt. eigenvalues --    1.48920   1.51561   1.51637   1.54258   1.54923
  Beta virt. eigenvalues --    1.57407   1.58983   1.59816   1.60956   1.65066
  Beta virt. eigenvalues --    1.66895   1.68958   1.72554   1.73098   1.75513
  Beta virt. eigenvalues --    1.77551   1.78891   1.82524   1.84300   1.89342
  Beta virt. eigenvalues --    1.90508   1.91841   1.92154   1.93767   1.94143
  Beta virt. eigenvalues --    1.96392   2.00183   2.03679   2.06921   2.10695
  Beta virt. eigenvalues --    2.12200   2.14438   2.16026   2.23839   2.28110
  Beta virt. eigenvalues --    2.29347   2.30355   2.34557   2.34733   2.37369
  Beta virt. eigenvalues --    2.42221   2.43489   2.49819   2.50037   2.51887
  Beta virt. eigenvalues --    2.53225   2.54758   2.57215   2.60431   2.60996
  Beta virt. eigenvalues --    2.62474   2.63349   2.65828   2.68256   2.70629
  Beta virt. eigenvalues --    2.76701   2.78606   2.80512   2.83438   2.84866
  Beta virt. eigenvalues --    2.87780   2.90416   2.94359   3.01959   3.04545
  Beta virt. eigenvalues --    3.06449   3.09667   3.14511   3.15034   3.17621
  Beta virt. eigenvalues --    3.18328   3.29896   3.30966   3.36145   3.39483
  Beta virt. eigenvalues --    3.42247   3.48074   3.52168   3.59609   3.61719
  Beta virt. eigenvalues --    3.64724   3.77286   3.80449   3.83335   3.85814
  Beta virt. eigenvalues --    3.99296   4.10240   4.10990   4.24439   4.34762
  Beta virt. eigenvalues --    4.81455   4.82254   4.85332   5.04628   5.35843
  Beta virt. eigenvalues --    5.63305   5.75272  23.48516  23.83399  23.86775
  Beta virt. eigenvalues --   23.88349  23.92585  24.00110  24.08615  24.15740
  Beta virt. eigenvalues --   49.91748  49.95513
          Condensed to atoms (all electrons):
               1          2          3          4          5          6
     1  C    5.036876   0.511720  -0.037416  -0.048234  -0.055600   0.515307
     2  C    0.511720   4.893988   0.517195  -0.063445  -0.030146  -0.060189
     3  C   -0.037416   0.517195   4.858298   0.209819  -0.013272  -0.037178
     4  C   -0.048234  -0.063445   0.209819   5.899723   0.374985  -0.051082
     5  C   -0.055600  -0.030146  -0.013272   0.374985   4.846404   0.548103
     6  C    0.515307  -0.060189  -0.037178  -0.051082   0.548103   4.825535
     7  H    0.008218  -0.000222   0.005032  -0.055245   0.415236  -0.031225
     8  O   -0.000047   0.000947  -0.007779  -0.094888   0.005436  -0.000077
     9  O    0.003669  -0.062062   0.426340  -0.084366   0.003921   0.000017
    10  H   -0.048531   0.405527  -0.041741   0.016387  -0.001242   0.006948
    11  C   -0.000194   0.004715  -0.077014   0.277315  -0.019709   0.004563
    12  H   -0.000112   0.000015   0.006614  -0.133660   0.004101   0.000568
    13  H   -0.000450   0.006881  -0.029693  -0.027187   0.000015   0.000166
    14  H   -0.046764   0.007916  -0.000821   0.009870  -0.039845   0.418488
    15  C    0.357193  -0.057790   0.006004  -0.000750   0.007673  -0.058520
    16  H   -0.034746  -0.005119   0.000142   0.000003  -0.000370   0.001346
    17  H   -0.034775  -0.005133   0.000149   0.000002  -0.000369   0.001394
    18  H   -0.034941   0.007052  -0.000475   0.000112   0.000452  -0.007231
               7          8          9         10         11         12
     1  C    0.008218  -0.000047   0.003669  -0.048531  -0.000194  -0.000112
     2  C   -0.000222   0.000947  -0.062062   0.405527   0.004715   0.000015
     3  C    0.005032  -0.007779   0.426340  -0.041741  -0.077014   0.006614
     4  C   -0.055245  -0.094888  -0.084366   0.016387   0.277315  -0.133660
     5  C    0.415236   0.005436   0.003921  -0.001242  -0.019709   0.004101
     6  C   -0.031225  -0.000077   0.000017   0.006948   0.004563   0.000568
     7  H    0.568654   0.000158  -0.000097   0.000087  -0.003089   0.005739
     8  O    0.000158   7.895228  -0.029547   0.000060   0.557979  -0.039439
     9  O   -0.000097  -0.029547   7.773056   0.005841  -0.010353  -0.000743
    10  H    0.000087   0.000060   0.005841   0.562468  -0.000134   0.000029
    11  C   -0.003089   0.557979  -0.010353  -0.000134   4.579226   0.437308
    12  H    0.005739  -0.039439  -0.000743   0.000029   0.437308   0.628810
    13  H    0.000064   0.073724   0.317182  -0.000007  -0.009802   0.003595
    14  H   -0.008425   0.000003   0.000008  -0.000275  -0.000119   0.000028
    15  C   -0.000366   0.000000  -0.000089  -0.007000  -0.000005  -0.000003
    16  H    0.000019   0.000000  -0.000005   0.000916   0.000000   0.000000
    17  H    0.000019   0.000000  -0.000005   0.000922   0.000000   0.000000
    18  H   -0.000024   0.000000   0.000002   0.000193   0.000003   0.000001
              13         14         15         16         17         18
     1  C   -0.000450  -0.046764   0.357193  -0.034746  -0.034775  -0.034941
     2  C    0.006881   0.007916  -0.057790  -0.005119  -0.005133   0.007052
     3  C   -0.029693  -0.000821   0.006004   0.000142   0.000149  -0.000475
     4  C   -0.027187   0.009870  -0.000750   0.000003   0.000002   0.000112
     5  C    0.000015  -0.039845   0.007673  -0.000370  -0.000369   0.000452
     6  C    0.000166   0.418488  -0.058520   0.001346   0.001394  -0.007231
     7  H    0.000064  -0.008425  -0.000366   0.000019   0.000019  -0.000024
     8  O    0.073724   0.000003   0.000000   0.000000   0.000000   0.000000
     9  O    0.317182   0.000008  -0.000089  -0.000005  -0.000005   0.000002
    10  H   -0.000007  -0.000275  -0.007000   0.000916   0.000922   0.000193
    11  C   -0.009802  -0.000119  -0.000005   0.000000   0.000000   0.000003
    12  H    0.003595   0.000028  -0.000003   0.000000   0.000000   0.000001
    13  H    0.406661  -0.000004   0.000017   0.000000   0.000000  -0.000001
    14  H   -0.000004   0.577212  -0.009391   0.000091   0.000089   0.003791
    15  C    0.000017  -0.009391   4.808055   0.402030   0.402109   0.408120
    16  H    0.000000   0.000091   0.402030   0.557794  -0.027218  -0.026203
    17  H    0.000000   0.000089   0.402109  -0.027218   0.557805  -0.026220
    18  H   -0.000001   0.003791   0.408120  -0.026203  -0.026220   0.565283
          Atomic-Atomic Spin Densities.
               1          2          3          4          5          6
     1  C    0.000000   0.000000   0.000000   0.000000   0.000000   0.000000
     2  C    0.000000   0.000000   0.000000   0.000000   0.000000   0.000000
     3  C    0.000000   0.000000   0.000000   0.000000   0.000000   0.000000
     4  C    0.000000   0.000000   0.000000   0.000000   0.000000   0.000000
     5  C    0.000000   0.000000   0.000000   0.000000   0.000000   0.000000
     6  C    0.000000   0.000000   0.000000   0.000000   0.000000   0.000000
     7  H    0.000000   0.000000   0.000000   0.000000   0.000000   0.000000
     8  O    0.000000   0.000000   0.000000   0.000000   0.000000   0.000000
     9  O    0.000000   0.000000   0.000000   0.000000   0.000000   0.000000
    10  H    0.000000   0.000000   0.000000   0.000000   0.000000   0.000000
    11  C    0.000000   0.000000   0.000000   0.000000   0.000000   0.000000
    12  H    0.000000   0.000000   0.000000   0.000000   0.000000   0.000000
    13  H    0.000000   0.000000   0.000000   0.000000   0.000000   0.000000
    14  H    0.000000   0.000000   0.000000   0.000000   0.000000   0.000000
    15  C    0.000000   0.000000   0.000000   0.000000   0.000000   0.000000
    16  H    0.000000   0.000000   0.000000   0.000000   0.000000   0.000000
    17  H    0.000000   0.000000   0.000000   0.000000   0.000000   0.000000
    18  H    0.000000   0.000000   0.000000   0.000000   0.000000   0.000000
               7          8          9         10         11         12
     1  C    0.000000   0.000000   0.000000   0.000000   0.000000   0.000000
     2  C    0.000000   0.000000   0.000000   0.000000   0.000000   0.000000
     3  C    0.000000   0.000000   0.000000   0.000000   0.000000   0.000000
     4  C    0.000000   0.000000   0.000000   0.000000   0.000000   0.000000
     5  C    0.000000   0.000000   0.000000   0.000000   0.000000   0.000000
     6  C    0.000000   0.000000   0.000000   0.000000   0.000000   0.000000
     7  H    0.000000   0.000000   0.000000   0.000000   0.000000   0.000000
     8  O    0.000000   0.000000   0.000000   0.000000   0.000000   0.000000
     9  O    0.000000   0.000000   0.000000   0.000000   0.000000   0.000000
    10  H    0.000000   0.000000   0.000000   0.000000   0.000000   0.000000
    11  C    0.000000   0.000000   0.000000   0.000000   0.000000   0.000000
    12  H    0.000000   0.000000   0.000000   0.000000   0.000000   0.000000
    13  H    0.000000   0.000000   0.000000   0.000000   0.000000   0.000000
    14  H    0.000000   0.000000   0.000000   0.000000   0.000000   0.000000
    15  C    0.000000   0.000000   0.000000   0.000000   0.000000   0.000000
    16  H    0.000000   0.000000   0.000000   0.000000   0.000000   0.000000
    17  H    0.000000   0.000000   0.000000   0.000000   0.000000   0.000000
    18  H    0.000000   0.000000   0.000000   0.000000   0.000000   0.000000
              13         14         15         16         17         18
     1  C    0.000000   0.000000   0.000000   0.000000   0.000000   0.000000
     2  C    0.000000   0.000000   0.000000   0.000000   0.000000   0.000000
     3  C    0.000000   0.000000   0.000000   0.000000   0.000000   0.000000
     4  C    0.000000   0.000000   0.000000   0.000000   0.000000   0.000000
     5  C    0.000000   0.000000   0.000000   0.000000   0.000000   0.000000
     6  C    0.000000   0.000000   0.000000   0.000000   0.000000   0.000000
     7  H    0.000000   0.000000   0.000000   0.000000   0.000000   0.000000
     8  O    0.000000   0.000000   0.000000   0.000000   0.000000   0.000000
     9  O    0.000000   0.000000   0.000000   0.000000   0.000000   0.000000
    10  H    0.000000   0.000000   0.000000   0.000000   0.000000   0.000000
    11  C    0.000000   0.000000   0.000000   0.000000   0.000000   0.000000
    12  H    0.000000   0.000000   0.000000   0.000000   0.000000   0.000000
    13  H    0.000000   0.000000   0.000000   0.000000   0.000000   0.000000
    14  H    0.000000   0.000000   0.000000   0.000000   0.000000   0.000000
    15  C    0.000000   0.000000   0.000000   0.000000   0.000000   0.000000
    16  H    0.000000   0.000000   0.000000   0.000000   0.000000   0.000000
    17  H    0.000000   0.000000   0.000000   0.000000   0.000000   0.000000
    18  H    0.000000   0.000000   0.000000   0.000000   0.000000   0.000000
 Mulliken charges and spin densities:
               1          2
     1  C   -0.091174   0.000000
     2  C   -0.071850   0.000000
     3  C    0.215796   0.000000
     4  C   -0.229358   0.000000
     5  C   -0.045773   0.000000
     6  C   -0.076933   0.000000
     7  H    0.095468   0.000000
     8  O   -0.361757   0.000000
     9  O   -0.342771   0.000000
    10  H    0.099552   0.000000
    11  C    0.259312   0.000000
    12  H    0.087148   0.000000
    13  H    0.258840   0.000000
    14  H    0.088148   0.000000
    15  C   -0.257287   0.000000
    16  H    0.131320   0.000000
    17  H    0.131233   0.000000
    18  H    0.110087   0.000000
 Sum of Mulliken charges =   0.00000   0.00000
 Mulliken charges and spin densities with hydrogens summed into heavy atoms:
               1          2
     1  C   -0.091174   0.000000
     2  C    0.027701   0.000000
     3  C    0.215796   0.000000
     4  C   -0.229358   0.000000
     5  C    0.049695   0.000000
     6  C    0.011215   0.000000
     8  O   -0.361757   0.000000
     9  O   -0.083931   0.000000
    11  C    0.346459   0.000000
    15  C    0.115352   0.000000
 Electronic spatial extent (au):  <R**2>=           1530.0186
 Charge=              0.0000 electrons
 Dipole moment (field-independent basis, Debye):
    X=              2.8302    Y=              1.8981    Z=              0.0006  Tot=              3.4078
 Quadrupole moment (field-independent basis, Debye-Ang):
   XX=            -59.7098   YY=            -55.5078   ZZ=            -60.4344
   XY=             -3.5185   XZ=              0.0007   YZ=             -0.0001
 Traceless Quadrupole moment (field-independent basis, Debye-Ang):
   XX=             -1.1591   YY=              3.0428   ZZ=             -1.8837
   XY=             -3.5185   XZ=              0.0007   YZ=             -0.0001
 Octapole moment (field-independent basis, Debye-Ang**2):
  XXX=             31.0120  YYY=              7.5503  ZZZ=              0.0066  XYY=             -4.7030
  XXY=             -0.2550  XXZ=              0.0045  XZZ=             -7.8143  YZZ=             -4.9701
  YYZ=             -0.0044  XYZ=             -0.0008
 Hexadecapole moment (field-independent basis, Debye-Ang**3):
 XXXX=          -1532.5678 YYYY=           -475.2171 ZZZZ=            -69.1593 XXXY=              9.4501
 XXXZ=              0.0053 YYYX=             -5.2826 YYYZ=              0.0071 ZZZX=              0.0228
 ZZZY=             -0.0035 XXYY=           -291.3170 XXZZ=           -251.0440 YYZZ=            -98.2874
 XXYZ=             -0.0081 YYXZ=             -0.0195 ZZXY=             -0.5039
 N-N= 4.926034097605D+02 E-N=-2.059297426115D+03  KE= 4.585186307317D+02
                          Isotropic Fermi Contact Couplings
        Atom                 a.u.       MegaHertz       Gauss      10(-4) cm-1
     1  C(13)              0.00000       0.00000       0.00000       0.00000
     2  C(13)              0.00000       0.00000       0.00000       0.00000
     3  C(13)              0.00000       0.00000       0.00000       0.00000
     4  C(13)              0.00000       0.00000       0.00000       0.00000
     5  C(13)              0.00000       0.00000       0.00000       0.00000
     6  C(13)              0.00000       0.00000       0.00000       0.00000
     7  H(1)               0.00000       0.00000       0.00000       0.00000
     8  O(17)              0.00000       0.00000       0.00000       0.00000
     9  O(17)              0.00000       0.00000       0.00000       0.00000
    10  H(1)               0.00000       0.00000       0.00000       0.00000
    11  C(13)              0.00000       0.00000       0.00000       0.00000
    12  H(1)               0.00000       0.00000       0.00000       0.00000
    13  H(1)               0.00000       0.00000       0.00000       0.00000
    14  H(1)               0.00000       0.00000       0.00000       0.00000
    15  C(13)              0.00000       0.00000       0.00000       0.00000
    16  H(1)               0.00000       0.00000       0.00000       0.00000
    17  H(1)               0.00000       0.00000       0.00000       0.00000
    18  H(1)               0.00000       0.00000       0.00000       0.00000
 --------------------------------------------------------
       Center         ----  Spin Dipole Couplings  ----
                      3XX-RR        3YY-RR        3ZZ-RR
 --------------------------------------------------------
     1   Atom        0.000000      0.000000      0.000000
     2   Atom        0.000000      0.000000      0.000000
     3   Atom        0.000000      0.000000      0.000000
     4   Atom        0.000000      0.000000      0.000000
     5   Atom        0.000000      0.000000      0.000000
     6   Atom        0.000000      0.000000      0.000000
     7   Atom        0.000000      0.000000      0.000000
     8   Atom        0.000000      0.000000      0.000000
     9   Atom        0.000000      0.000000      0.000000
    10   Atom        0.000000      0.000000      0.000000
    11   Atom        0.000000      0.000000      0.000000
    12   Atom        0.000000      0.000000      0.000000
    13   Atom        0.000000      0.000000      0.000000
    14   Atom        0.000000      0.000000      0.000000
    15   Atom        0.000000      0.000000      0.000000
    16   Atom        0.000000      0.000000      0.000000
    17   Atom        0.000000      0.000000      0.000000
    18   Atom        0.000000      0.000000      0.000000
 --------------------------------------------------------
                        XY            XZ            YZ
 --------------------------------------------------------
     1   Atom        0.000000      0.000000      0.000000
     2   Atom        0.000000      0.000000      0.000000
     3   Atom        0.000000      0.000000      0.000000
     4   Atom        0.000000      0.000000      0.000000
     5   Atom        0.000000      0.000000      0.000000
     6   Atom        0.000000      0.000000      0.000000
     7   Atom        0.000000      0.000000      0.000000
     8   Atom        0.000000      0.000000      0.000000
     9   Atom        0.000000      0.000000      0.000000
    10   Atom        0.000000      0.000000      0.000000
    11   Atom        0.000000      0.000000      0.000000
    12   Atom        0.000000      0.000000      0.000000
    13   Atom        0.000000      0.000000      0.000000
    14   Atom        0.000000      0.000000      0.000000
    15   Atom        0.000000      0.000000      0.000000
    16   Atom        0.000000      0.000000      0.000000
    17   Atom        0.000000      0.000000      0.000000
    18   Atom        0.000000      0.000000      0.000000
 --------------------------------------------------------


 ---------------------------------------------------------------------------------
              Anisotropic Spin Dipole Couplings in Principal Axis System
 ---------------------------------------------------------------------------------

       Atom             a.u.   MegaHertz   Gauss  10(-4) cm-1        Axes

              Baa     0.0000     0.000     0.000     0.000  0.9726 -0.2318 -0.0166
     1 C(13)  Bbb     0.0000     0.000     0.000     0.000  0.2319  0.9727  0.0046
              Bcc     0.0000     0.000     0.000     0.000  0.0151 -0.0084  0.9999
 
              Baa     0.0000     0.000     0.000     0.000 -0.0935 -0.1028  0.9903
     2 C(13)  Bbb     0.0000     0.000     0.000     0.000  0.7883  0.5999  0.1367
              Bcc     0.0000     0.000     0.000     0.000 -0.6081  0.7934  0.0250
 
              Baa     0.0000     0.000     0.000     0.000  0.9281  0.3724 -0.0076
     3 C(13)  Bbb     0.0000     0.000     0.000     0.000 -0.3723  0.9281  0.0094
              Bcc     0.0000     0.000     0.000     0.000  0.0105 -0.0059  0.9999
 
              Baa     0.0000     0.000     0.000     0.000  0.7455 -0.6512  0.1422
     4 C(13)  Bbb     0.0000     0.000     0.000     0.000 -0.1470  0.0476  0.9880
              Bcc     0.0000     0.000     0.000     0.000  0.6501  0.7574  0.0602
 
              Baa     0.0000     0.000     0.000     0.000 -0.1389  0.9903 -0.0043
     5 C(13)  Bbb     0.0000     0.000     0.000     0.000  0.9522  0.1347  0.2742
              Bcc     0.0000     0.000     0.000     0.000 -0.2721 -0.0339  0.9617
 
              Baa     0.0000     0.000     0.000     0.000 -0.6800  0.7331  0.0153
     6 C(13)  Bbb     0.0000     0.000     0.000     0.000  0.0227  0.0002  0.9997
              Bcc     0.0000     0.000     0.000     0.000  0.7329  0.6802 -0.0168
 
              Baa     0.0000     0.000     0.000     0.000  0.9924  0.1227 -0.0003
     7 H(1)   Bbb     0.0000     0.000     0.000     0.000 -0.0053  0.0452  0.9990
              Bcc     0.0000     0.000     0.000     0.000 -0.1226  0.9914 -0.0455
 
              Baa     0.0000     0.000     0.000     0.000 -0.4806  0.8769  0.0077
     8 O(17)  Bbb     0.0000     0.000     0.000     0.000  0.0211  0.0027  0.9998
              Bcc     0.0000     0.000     0.000     0.000  0.8767  0.4807 -0.0198
 
              Baa     0.0000     0.000     0.000     0.000  0.9803 -0.1971 -0.0156
     9 O(17)  Bbb     0.0000     0.000     0.000     0.000  0.1975  0.9797  0.0344
              Bcc     0.0000     0.000     0.000     0.000  0.0085 -0.0368  0.9993
 
              Baa     0.0000     0.000     0.000     0.000  0.9989 -0.0448 -0.0104
    10 H(1)   Bbb     0.0000     0.000     0.000     0.000  0.0122  0.0398  0.9991
              Bcc     0.0000     0.000     0.000     0.000  0.0443  0.9982 -0.0403
 
              Baa     0.0000     0.000     0.000     0.000 -0.3003  0.9538  0.0074
    11 C(13)  Bbb     0.0000     0.000     0.000     0.000  0.9538  0.3002  0.0102
              Bcc     0.0000     0.000     0.000     0.000 -0.0075 -0.0102  0.9999
 
              Baa     0.0000     0.000     0.000     0.000  0.0514  0.9986 -0.0119
    12 H(1)   Bbb     0.0000     0.000     0.000     0.000  0.9984 -0.0512  0.0222
              Bcc     0.0000     0.000     0.000     0.000 -0.0215  0.0130  0.9997
 
              Baa     0.0000     0.000     0.000     0.000 -0.5171  0.8555 -0.0255
    13 H(1)   Bbb     0.0000     0.000     0.000     0.000  0.0195  0.0416  0.9989
              Bcc     0.0000     0.000     0.000     0.000  0.8557  0.5161 -0.0382
 
              Baa     0.0000     0.000     0.000     0.000  0.9678 -0.2516 -0.0035
    14 H(1)   Bbb     0.0000     0.000     0.000     0.000  0.2506  0.9624  0.1046
              Bcc     0.0000     0.000     0.000     0.000 -0.0230 -0.1021  0.9945
 
              Baa     0.0000     0.000     0.000     0.000  0.8251  0.1980 -0.5292
    15 C(13)  Bbb     0.0000     0.000     0.000     0.000  0.2184  0.7520  0.6219
              Bcc     0.0000     0.000     0.000     0.000 -0.5212  0.6287 -0.5772
 
              Baa     0.0000     0.000     0.000     0.000  0.1906 -0.5003  0.8446
    16 H(1)   Bbb     0.0000     0.000     0.000     0.000  0.9051  0.4228  0.0462
              Bcc     0.0000     0.000     0.000     0.000 -0.3802  0.7556  0.5334
 
              Baa     0.0000     0.000     0.000     0.000 -0.1323  0.5389  0.8319
    17 H(1)   Bbb     0.0000     0.000     0.000     0.000  0.3444  0.8120 -0.4712
              Bcc     0.0000     0.000     0.000     0.000  0.9295 -0.2242  0.2930
 
              Baa     0.0000     0.000     0.000     0.000  0.4841  0.8744  0.0322
    18 H(1)   Bbb     0.0000     0.000     0.000     0.000 -0.0652 -0.0006  0.9979
              Bcc     0.0000     0.000     0.000     0.000  0.8726 -0.4851  0.0568
 

 ---------------------------------------------------------------------------------

 1|1|UNPC-PC-20250526LCFF|SP|UB3LYP|6-311G(d,p)|C8H8O2|ADMINISTRATOR|02
 -Dec-2025|0||# ub3lyp/6-311g(d,p) geom=connectivity temperature=823.15
 ||Title Card Required||0,1|C,0,1.899863,-0.019337,-0.000094|C,0,0.9693
 9,-1.055743,-0.000091|C,0,-0.402437,-0.791396,-0.000017|C,0,-0.852429,
 0.555274,0.000019|C,0,0.097462,1.589862,0.000002|C,0,1.451428,1.31498,
 -0.00006|H,0,-0.252304,2.61778,0.000002|O,0,-3.161317,0.004136,0.00000
 4|O,0,-1.259569,-1.82043,0.000017|H,0,1.287742,-2.092184,-0.000149|C,0
 ,-2.27305,0.851991,0.000029|H,0,-2.541694,1.925634,0.00012|H,0,-2.1689
 95,-1.44412,0.000102|H,0,2.173214,2.123274,-0.000099|C,0,3.375258,-0.3
 33924,0.000086|H,0,3.649291,-0.920409,0.882027|H,0,3.648608,-0.925132,
 -0.878882|H,0,3.978316,0.575267,-0.002528||Version=EM64W-G16RevA.03|St
 ate=1-A|HF=-460.2481464|S2=0.|S2-1=0.|S2A=0.|RMSD=9.399e-009|Dipole=1.
 1134981,0.7467846,0.0002171|Quadrupole=-0.8617689,2.2622685,-1.4004996
 ,-2.6159095,0.0005044,-0.0001008|PG=C01 [X(C8H8O2)]||@


 ACHIEVEMENT--  THE MAN WHO ROWS THE BOAT GENERALLY 
                DOESN'T HAVE TIME TO ROCK IT.

                   -- FROM THE BACK OF A SUGAR PACKET
 Job cpu time:       0 days  0 hours  0 minutes 27.0 seconds.
 Elapsed time:       0 days  0 hours  0 minutes 27.2 seconds.
 File lengths (MBytes):  RWF=     54 Int=      0 D2E=      0 Chk=      5 Scr=      1
 Normal termination of Gaussian 16 at Tue Dec 02 11:39:41 2025.
