Title Card Required                                                     
SP        UB3LYP                                                      6-311G(d,p)         
Number of atoms                            I               18
Info1-9                                    I   N=           9
          47          46           0           0           0         110
           1          18        -502
Full Title                                 C   N=           2
Title Card Required     
Route                                      C   N=           5
# ub3lyp/6-311g(d,p) geom=connectivity temperature=823.15   
Charge                                     I                0
Multiplicity                               I                1
Number of electrons                        I               72
Number of alpha electrons                  I               36
Number of beta electrons                   I               36
Number of basis functions                  I              228
Number of independent functions            I              228
Number of point charges in /Mol/           I                0
Number of translation vectors              I                0
Atomic numbers                             I   N=          18
           6           6           6           6           6           6
           1           8           8           1           6           1
           1           1           6           1           1           1
Nuclear charges                            R   N=          18
  6.00000000E+00  6.00000000E+00  6.00000000E+00  6.00000000E+00  6.00000000E+00
  6.00000000E+00  1.00000000E+00  8.00000000E+00  8.00000000E+00  1.00000000E+00
  6.00000000E+00  1.00000000E+00  1.00000000E+00  1.00000000E+00  6.00000000E+00
  1.00000000E+00  1.00000000E+00  1.00000000E+00
Current cartesian coordinates              R   N=          54
  3.59022074E+00 -3.65416341E-02 -1.77634256E-04  1.83188161E+00 -1.99506513E+00
 -1.71965077E-04 -7.60495712E-01 -1.49552170E+00 -3.21253441E-05 -1.61085735E+00
  1.04931578E+00  3.59047964E-05  1.84176488E-01  3.00440376E+00  3.77945225E-06
  2.74280141E+00  2.48495206E+00 -1.13383567E-04 -4.76785460E-01  4.94688725E+00
  3.77945225E-06 -5.97402332E+00  7.81590725E-03  7.55890450E-06 -2.38024044E+00
 -3.44011413E+00  3.21253441E-05  2.43347970E+00 -3.95365476E+00 -2.81569193E-04
 -4.29544197E+00  1.61002965E+00  5.48020576E-05 -4.80310555E+00  3.63892088E+00
  2.26767135E-04 -4.09880652E+00 -2.72899129E+00  1.92752065E-04  4.10677927E+00
  4.01240635E+00 -1.87082886E-04  6.37831322E+00 -6.31024906E-01  1.62516447E-04
  6.89616054E+00 -1.73932093E+00  1.66678946E+00  6.89486986E+00 -1.74824611E+00
 -1.66084628E+00  7.51792768E+00  1.08709708E+00 -4.77722764E-03
Number of symbols in /Mol/                 I                0
Force Field                                I                0
Atom Types                                 C   N=          18
                                                            
                                                            
                                                            
                                    
Int Atom Types                             I   N=          18
           0           0           0           0           0           0
           0           0           0           0           0           0
           0           0           0           0           0           0
MM charges                                 R   N=          18
  0.00000000E+00  0.00000000E+00  0.00000000E+00  0.00000000E+00  0.00000000E+00
  0.00000000E+00  0.00000000E+00  0.00000000E+00  0.00000000E+00  0.00000000E+00
  0.00000000E+00  0.00000000E+00  0.00000000E+00  0.00000000E+00  0.00000000E+00
  0.00000000E+00  0.00000000E+00  0.00000000E+00
Integer atomic weights                     I   N=          18
          12          12          12          12          12          12
           1          16          16           1          12           1
           1           1          12           1           1           1
Real atomic weights                        R   N=          18
  1.20000000E+01  1.20000000E+01  1.20000000E+01  1.20000000E+01  1.20000000E+01
  1.20000000E+01  1.00782504E+00  1.59949146E+01  1.59949146E+01  1.00782504E+00
  1.20000000E+01  1.00782504E+00  1.00782504E+00  1.00782504E+00  1.20000000E+01
  1.00782504E+00  1.00782504E+00  1.00782504E+00
Atom fragment info                         I   N=          18
           0           0           0           0           0           0
           0           0           0           0           0           0
           0           0           0           0           0           0
Atom residue num                           I   N=          18
           0           0           0           0           0           0
           0           0           0           0           0           0
           0           0           0           0           0           0
Nuclear spins                              I   N=          18
           0           0           0           0           0           0
           1           0           0           1           0           1
           1           1           0           1           1           1
Nuclear ZEff                               R   N=          18
 -3.60000000E+00 -3.60000000E+00 -3.60000000E+00 -3.60000000E+00 -3.60000000E+00
 -3.60000000E+00 -1.00000000E+00 -5.60000000E+00 -5.60000000E+00 -1.00000000E+00
 -3.60000000E+00 -1.00000000E+00 -1.00000000E+00 -1.00000000E+00 -3.60000000E+00
 -1.00000000E+00 -1.00000000E+00 -1.00000000E+00
Nuclear ZNuc                               R   N=          18
  6.00000000E+00  6.00000000E+00  6.00000000E+00  6.00000000E+00  6.00000000E+00
  6.00000000E+00  1.00000000E+00  8.00000000E+00  8.00000000E+00  1.00000000E+00
  6.00000000E+00  1.00000000E+00  1.00000000E+00  1.00000000E+00  6.00000000E+00
  1.00000000E+00  1.00000000E+00  1.00000000E+00
Nuclear QMom                               R   N=          18
  0.00000000E+00  0.00000000E+00  0.00000000E+00  0.00000000E+00  0.00000000E+00
  0.00000000E+00  0.00000000E+00  0.00000000E+00  0.00000000E+00  0.00000000E+00
  0.00000000E+00  0.00000000E+00  0.00000000E+00  0.00000000E+00  0.00000000E+00
  0.00000000E+00  0.00000000E+00  0.00000000E+00
Nuclear GFac                               R   N=          18
  0.00000000E+00  0.00000000E+00  0.00000000E+00  0.00000000E+00  0.00000000E+00
  0.00000000E+00  2.79284600E+00  0.00000000E+00  0.00000000E+00  2.79284600E+00
  0.00000000E+00  2.79284600E+00  2.79284600E+00  2.79284600E+00  0.00000000E+00
  2.79284600E+00  2.79284600E+00  2.79284600E+00
MicOpt                                     I   N=          18
          -1          -1          -1          -1          -1          -1
          -1          -1          -1          -1          -1          -1
          -1          -1          -1          -1          -1          -1
Number of residues                         I                0
Number of secondary structures             I                0
SymInf integers                            I   N=          26
           1           1           1           1           1           0
           0           0           0           0           0           0
           0           0           0           0           0           0
           0           0           0           0           0           0
           0           0
RotTr to input orientation                 R   N=          12
  1.00000000E+00  1.18776497E-09  0.00000000E+00 -1.18776497E-09  1.00000000E+00
  0.00000000E+00  0.00000000E+00  0.00000000E+00  1.00000000E+00  1.48029737E-16
 -8.63506797E-17  1.31230981E-07
Number of contracted shells                I               82
Number of primitive shells                 I              168
Pure/Cartesian d shells                    I                0
Pure/Cartesian f shells                    I                0
Highest angular momentum                   I                2
Largest degree of contraction              I                6
Shell types                                I   N=          82
           0          -1          -1          -1          -2           0
          -1          -1          -1          -2           0          -1
          -1          -1          -2           0          -1          -1
          -1          -2           0          -1          -1          -1
          -2           0          -1          -1          -1          -2
           0           0           0           1           0          -1
          -1          -1          -2           0          -1          -1
          -1          -2           0           0           0           1
           0          -1          -1          -1          -2           0
           0           0           1           0           0           0
           1           0           0           0           1           0
          -1          -1          -1          -2           0           0
           0           1           0           0           0           1
           0           0           0           1
Number of primitives per shell             I   N=          82
           6           3           1           1           1           6
           3           1           1           1           6           3
           1           1           1           6           3           1
           1           1           6           3           1           1
           1           6           3           1           1           1
           3           1           1           1           6           3
           1           1           1           6           3           1
           1           1           3           1           1           1
           6           3           1           1           1           3
           1           1           1           3           1           1
           1           3           1           1           1           6
           3           1           1           1           3           1
           1           1           3           1           1           1
           3           1           1           1
Shell to atom map                          I   N=          82
           1           1           1           1           1           2
           2           2           2           2           3           3
           3           3           3           4           4           4
           4           4           5           5           5           5
           5           6           6           6           6           6
           7           7           7           7           8           8
           8           8           8           9           9           9
           9           9          10          10          10          10
          11          11          11          11          11          12
          12          12          12          13          13          13
          13          14          14          14          14          15
          15          15          15          15          16          16
          16          16          17          17          17          17
          18          18          18          18
Primitive exponents                        R   N=         168
  4.56324000E+03  6.82024000E+02  1.54973000E+02  4.44553000E+01  1.30290000E+01
  1.82773000E+00  2.09642000E+01  4.80331000E+00  1.45933000E+00  4.83456000E-01
  1.45585000E-01  6.26000000E-01  4.56324000E+03  6.82024000E+02  1.54973000E+02
  4.44553000E+01  1.30290000E+01  1.82773000E+00  2.09642000E+01  4.80331000E+00
  1.45933000E+00  4.83456000E-01  1.45585000E-01  6.26000000E-01  4.56324000E+03
  6.82024000E+02  1.54973000E+02  4.44553000E+01  1.30290000E+01  1.82773000E+00
  2.09642000E+01  4.80331000E+00  1.45933000E+00  4.83456000E-01  1.45585000E-01
  6.26000000E-01  4.56324000E+03  6.82024000E+02  1.54973000E+02  4.44553000E+01
  1.30290000E+01  1.82773000E+00  2.09642000E+01  4.80331000E+00  1.45933000E+00
  4.83456000E-01  1.45585000E-01  6.26000000E-01  4.56324000E+03  6.82024000E+02
  1.54973000E+02  4.44553000E+01  1.30290000E+01  1.82773000E+00  2.09642000E+01
  4.80331000E+00  1.45933000E+00  4.83456000E-01  1.45585000E-01  6.26000000E-01
  4.56324000E+03  6.82024000E+02  1.54973000E+02  4.44553000E+01  1.30290000E+01
  1.82773000E+00  2.09642000E+01  4.80331000E+00  1.45933000E+00  4.83456000E-01
  1.45585000E-01  6.26000000E-01  3.38650000E+01  5.09479000E+00  1.15879000E+00
  3.25840000E-01  1.02741000E-01  7.50000000E-01  8.58850000E+03  1.29723000E+03
  2.99296000E+02  8.73771000E+01  2.56789000E+01  3.74004000E+00  4.21175000E+01
  9.62837000E+00  2.85332000E+00  9.05661000E-01  2.55611000E-01  1.29200000E+00
  8.58850000E+03  1.29723000E+03  2.99296000E+02  8.73771000E+01  2.56789000E+01
  3.74004000E+00  4.21175000E+01  9.62837000E+00  2.85332000E+00  9.05661000E-01
  2.55611000E-01  1.29200000E+00  3.38650000E+01  5.09479000E+00  1.15879000E+00
  3.25840000E-01  1.02741000E-01  7.50000000E-01  4.56324000E+03  6.82024000E+02
  1.54973000E+02  4.44553000E+01  1.30290000E+01  1.82773000E+00  2.09642000E+01
  4.80331000E+00  1.45933000E+00  4.83456000E-01  1.45585000E-01  6.26000000E-01
  3.38650000E+01  5.09479000E+00  1.15879000E+00  3.25840000E-01  1.02741000E-01
  7.50000000E-01  3.38650000E+01  5.09479000E+00  1.15879000E+00  3.25840000E-01
  1.02741000E-01  7.50000000E-01  3.38650000E+01  5.09479000E+00  1.15879000E+00
  3.25840000E-01  1.02741000E-01  7.50000000E-01  4.56324000E+03  6.82024000E+02
  1.54973000E+02  4.44553000E+01  1.30290000E+01  1.82773000E+00  2.09642000E+01
  4.80331000E+00  1.45933000E+00  4.83456000E-01  1.45585000E-01  6.26000000E-01
  3.38650000E+01  5.09479000E+00  1.15879000E+00  3.25840000E-01  1.02741000E-01
  7.50000000E-01  3.38650000E+01  5.09479000E+00  1.15879000E+00  3.25840000E-01
  1.02741000E-01  7.50000000E-01  3.38650000E+01  5.09479000E+00  1.15879000E+00
  3.25840000E-01  1.02741000E-01  7.50000000E-01
Contraction coefficients                   R   N=         168
  1.96665025E-03  1.52306019E-02  7.61269097E-02  2.60801033E-01  6.16462078E-01
  2.21006028E-01  1.14660081E-01  9.19999648E-01 -3.03068213E-03  1.00000000E+00
  1.00000000E+00  1.00000000E+00  1.96665025E-03  1.52306019E-02  7.61269097E-02
  2.60801033E-01  6.16462078E-01  2.21006028E-01  1.14660081E-01  9.19999648E-01
 -3.03068213E-03  1.00000000E+00  1.00000000E+00  1.00000000E+00  1.96665025E-03
  1.52306019E-02  7.61269097E-02  2.60801033E-01  6.16462078E-01  2.21006028E-01
  1.14660081E-01  9.19999648E-01 -3.03068213E-03  1.00000000E+00  1.00000000E+00
  1.00000000E+00  1.96665025E-03  1.52306019E-02  7.61269097E-02  2.60801033E-01
  6.16462078E-01  2.21006028E-01  1.14660081E-01  9.19999648E-01 -3.03068213E-03
  1.00000000E+00  1.00000000E+00  1.00000000E+00  1.96665025E-03  1.52306019E-02
  7.61269097E-02  2.60801033E-01  6.16462078E-01  2.21006028E-01  1.14660081E-01
  9.19999648E-01 -3.03068213E-03  1.00000000E+00  1.00000000E+00  1.00000000E+00
  1.96665025E-03  1.52306019E-02  7.61269097E-02  2.60801033E-01  6.16462078E-01
  2.21006028E-01  1.14660081E-01  9.19999648E-01 -3.03068213E-03  1.00000000E+00
  1.00000000E+00  1.00000000E+00  2.54938145E-02  1.90373109E-01  8.52161486E-01
  1.00000000E+00  1.00000000E+00  1.00000000E+00  1.89515008E-03  1.43859006E-02
  7.07320031E-02  2.40001011E-01  5.94797026E-01  2.80802012E-01  1.13889012E-01
  9.20811101E-01 -3.27447036E-03  1.00000000E+00  1.00000000E+00  1.00000000E+00
  1.89515008E-03  1.43859006E-02  7.07320031E-02  2.40001011E-01  5.94797026E-01
  2.80802012E-01  1.13889012E-01  9.20811101E-01 -3.27447036E-03  1.00000000E+00
  1.00000000E+00  1.00000000E+00  2.54938145E-02  1.90373109E-01  8.52161486E-01
  1.00000000E+00  1.00000000E+00  1.00000000E+00  1.96665025E-03  1.52306019E-02
  7.61269097E-02  2.60801033E-01  6.16462078E-01  2.21006028E-01  1.14660081E-01
  9.19999648E-01 -3.03068213E-03  1.00000000E+00  1.00000000E+00  1.00000000E+00
  2.54938145E-02  1.90373109E-01  8.52161486E-01  1.00000000E+00  1.00000000E+00
  1.00000000E+00  2.54938145E-02  1.90373109E-01  8.52161486E-01  1.00000000E+00
  1.00000000E+00  1.00000000E+00  2.54938145E-02  1.90373109E-01  8.52161486E-01
  1.00000000E+00  1.00000000E+00  1.00000000E+00  1.96665025E-03  1.52306019E-02
  7.61269097E-02  2.60801033E-01  6.16462078E-01  2.21006028E-01  1.14660081E-01
  9.19999648E-01 -3.03068213E-03  1.00000000E+00  1.00000000E+00  1.00000000E+00
  2.54938145E-02  1.90373109E-01  8.52161486E-01  1.00000000E+00  1.00000000E+00
  1.00000000E+00  2.54938145E-02  1.90373109E-01  8.52161486E-01  1.00000000E+00
  1.00000000E+00  1.00000000E+00  2.54938145E-02  1.90373109E-01  8.52161486E-01
  1.00000000E+00  1.00000000E+00  1.00000000E+00
P(S=P) Contraction coefficients            R   N=         168
  0.00000000E+00  0.00000000E+00  0.00000000E+00  0.00000000E+00  0.00000000E+00
  0.00000000E+00  4.02486927E-02  2.37593957E-01  8.15853851E-01  1.00000000E+00
  1.00000000E+00  0.00000000E+00  0.00000000E+00  0.00000000E+00  0.00000000E+00
  0.00000000E+00  0.00000000E+00  0.00000000E+00  4.02486927E-02  2.37593957E-01
  8.15853851E-01  1.00000000E+00  1.00000000E+00  0.00000000E+00  0.00000000E+00
  0.00000000E+00  0.00000000E+00  0.00000000E+00  0.00000000E+00  0.00000000E+00
  4.02486927E-02  2.37593957E-01  8.15853851E-01  1.00000000E+00  1.00000000E+00
  0.00000000E+00  0.00000000E+00  0.00000000E+00  0.00000000E+00  0.00000000E+00
  0.00000000E+00  0.00000000E+00  4.02486927E-02  2.37593957E-01  8.15853851E-01
  1.00000000E+00  1.00000000E+00  0.00000000E+00  0.00000000E+00  0.00000000E+00
  0.00000000E+00  0.00000000E+00  0.00000000E+00  0.00000000E+00  4.02486927E-02
  2.37593957E-01  8.15853851E-01  1.00000000E+00  1.00000000E+00  0.00000000E+00
  0.00000000E+00  0.00000000E+00  0.00000000E+00  0.00000000E+00  0.00000000E+00
  0.00000000E+00  4.02486927E-02  2.37593957E-01  8.15853851E-01  1.00000000E+00
  1.00000000E+00  0.00000000E+00  0.00000000E+00  0.00000000E+00  0.00000000E+00
  0.00000000E+00  0.00000000E+00  0.00000000E+00  0.00000000E+00  0.00000000E+00
  0.00000000E+00  0.00000000E+00  0.00000000E+00  0.00000000E+00  3.65113974E-02
  2.37152983E-01  8.19701941E-01  1.00000000E+00  1.00000000E+00  0.00000000E+00
  0.00000000E+00  0.00000000E+00  0.00000000E+00  0.00000000E+00  0.00000000E+00
  0.00000000E+00  3.65113974E-02  2.37152983E-01  8.19701941E-01  1.00000000E+00
  1.00000000E+00  0.00000000E+00  0.00000000E+00  0.00000000E+00  0.00000000E+00
  0.00000000E+00  0.00000000E+00  0.00000000E+00  0.00000000E+00  0.00000000E+00
  0.00000000E+00  0.00000000E+00  0.00000000E+00  0.00000000E+00  4.02486927E-02
  2.37593957E-01  8.15853851E-01  1.00000000E+00  1.00000000E+00  0.00000000E+00
  0.00000000E+00  0.00000000E+00  0.00000000E+00  0.00000000E+00  0.00000000E+00
  0.00000000E+00  0.00000000E+00  0.00000000E+00  0.00000000E+00  0.00000000E+00
  0.00000000E+00  0.00000000E+00  0.00000000E+00  0.00000000E+00  0.00000000E+00
  0.00000000E+00  0.00000000E+00  0.00000000E+00  0.00000000E+00  0.00000000E+00
  0.00000000E+00  0.00000000E+00  0.00000000E+00  0.00000000E+00  4.02486927E-02
  2.37593957E-01  8.15853851E-01  1.00000000E+00  1.00000000E+00  0.00000000E+00
  0.00000000E+00  0.00000000E+00  0.00000000E+00  0.00000000E+00  0.00000000E+00
  0.00000000E+00  0.00000000E+00  0.00000000E+00  0.00000000E+00  0.00000000E+00
  0.00000000E+00  0.00000000E+00  0.00000000E+00  0.00000000E+00  0.00000000E+00
  0.00000000E+00  0.00000000E+00  0.00000000E+00
Coordinates of each shell                  R   N=         246
  3.59022074E+00 -3.65416383E-02 -1.77765487E-04  3.59022074E+00 -3.65416383E-02
 -1.77765487E-04  3.59022074E+00 -3.65416383E-02 -1.77765487E-04  3.59022074E+00
 -3.65416383E-02 -1.77765487E-04  3.59022074E+00 -3.65416383E-02 -1.77765487E-04
  1.83188161E+00 -1.99506513E+00 -1.72096308E-04  1.83188161E+00 -1.99506513E+00
 -1.72096308E-04  1.83188161E+00 -1.99506513E+00 -1.72096308E-04  1.83188161E+00
 -1.99506513E+00 -1.72096308E-04  1.83188161E+00 -1.99506513E+00 -1.72096308E-04
 -7.60495714E-01 -1.49552170E+00 -3.22565751E-05 -7.60495714E-01 -1.49552170E+00
 -3.22565751E-05 -7.60495714E-01 -1.49552170E+00 -3.22565751E-05 -7.60495714E-01
 -1.49552170E+00 -3.22565751E-05 -7.60495714E-01 -1.49552170E+00 -3.22565751E-05
 -1.61085735E+00  1.04931579E+00  3.57735654E-05 -1.61085735E+00  1.04931579E+00
  3.57735654E-05 -1.61085735E+00  1.04931579E+00  3.57735654E-05 -1.61085735E+00
  1.04931579E+00  3.57735654E-05 -1.61085735E+00  1.04931579E+00  3.57735654E-05
  1.84176491E-01  3.00440376E+00  3.64822127E-06  1.84176491E-01  3.00440376E+00
  3.64822127E-06  1.84176491E-01  3.00440376E+00  3.64822127E-06  1.84176491E-01
  3.00440376E+00  3.64822127E-06  1.84176491E-01  3.00440376E+00  3.64822127E-06
  2.74280141E+00  2.48495206E+00 -1.13514798E-04  2.74280141E+00  2.48495206E+00
 -1.13514798E-04  2.74280141E+00  2.48495206E+00 -1.13514798E-04  2.74280141E+00
  2.48495206E+00 -1.13514798E-04  2.74280141E+00  2.48495206E+00 -1.13514798E-04
 -4.76785454E-01  4.94688725E+00  3.64822127E-06 -4.76785454E-01  4.94688725E+00
  3.64822127E-06 -4.76785454E-01  4.94688725E+00  3.64822127E-06 -4.76785454E-01
  4.94688725E+00  3.64822127E-06 -5.97402332E+00  7.81591435E-03  7.42767352E-06
 -5.97402332E+00  7.81591435E-03  7.42767352E-06 -5.97402332E+00  7.81591435E-03
  7.42767352E-06 -5.97402332E+00  7.81591435E-03  7.42767352E-06 -5.97402332E+00
  7.81591435E-03  7.42767352E-06 -2.38024045E+00 -3.44011413E+00  3.19941131E-05
 -2.38024045E+00 -3.44011413E+00  3.19941131E-05 -2.38024045E+00 -3.44011413E+00
  3.19941131E-05 -2.38024045E+00 -3.44011413E+00  3.19941131E-05 -2.38024045E+00
 -3.44011413E+00  3.19941131E-05  2.43347969E+00 -3.95365477E+00 -2.81700424E-04
  2.43347969E+00 -3.95365477E+00 -2.81700424E-04  2.43347969E+00 -3.95365477E+00
 -2.81700424E-04  2.43347969E+00 -3.95365477E+00 -2.81700424E-04 -4.29544197E+00
  1.61002966E+00  5.46708266E-05 -4.29544197E+00  1.61002966E+00  5.46708266E-05
 -4.29544197E+00  1.61002966E+00  5.46708266E-05 -4.29544197E+00  1.61002966E+00
  5.46708266E-05 -4.29544197E+00  1.61002966E+00  5.46708266E-05 -4.80310555E+00
  3.63892088E+00  2.26635904E-04 -4.80310555E+00  3.63892088E+00  2.26635904E-04
 -4.80310555E+00  3.63892088E+00  2.26635904E-04 -4.80310555E+00  3.63892088E+00
  2.26635904E-04 -4.09880652E+00 -2.72899129E+00  1.92620834E-04 -4.09880652E+00
 -2.72899129E+00  1.92620834E-04 -4.09880652E+00 -2.72899129E+00  1.92620834E-04
 -4.09880652E+00 -2.72899129E+00  1.92620834E-04  4.10677927E+00  4.01240634E+00
 -1.87214117E-04  4.10677927E+00  4.01240634E+00 -1.87214117E-04  4.10677927E+00
  4.01240634E+00 -1.87214117E-04  4.10677927E+00  4.01240634E+00 -1.87214117E-04
  6.37831322E+00 -6.31024914E-01  1.62385216E-04  6.37831322E+00 -6.31024914E-01
  1.62385216E-04  6.37831322E+00 -6.31024914E-01  1.62385216E-04  6.37831322E+00
 -6.31024914E-01  1.62385216E-04  6.37831322E+00 -6.31024914E-01  1.62385216E-04
  6.89616054E+00 -1.73932094E+00  1.66678933E+00  6.89616054E+00 -1.73932094E+00
  1.66678933E+00  6.89616054E+00 -1.73932094E+00  1.66678933E+00  6.89616054E+00
 -1.73932094E+00  1.66678933E+00  6.89486985E+00 -1.74824612E+00 -1.66084641E+00
  6.89486985E+00 -1.74824612E+00 -1.66084641E+00  6.89486985E+00 -1.74824612E+00
 -1.66084641E+00  6.89486985E+00 -1.74824612E+00 -1.66084641E+00  7.51792768E+00
  1.08709707E+00 -4.77735887E-03  7.51792768E+00  1.08709707E+00 -4.77735887E-03
  7.51792768E+00  1.08709707E+00 -4.77735887E-03  7.51792768E+00  1.08709707E+00
 -4.77735887E-03
Num ILSW                                   I              100
ILSW                                       I   N=         100
           1           0           0           0           2           0
           0           0           0           0         402          -1
           5           0           0           0           0           0
           0           0           1           0           0           0
           1           0           0           0           0           0
           0           0      100000           0          -1           0
           0           0           0           0           0           0
           0           0           0           1           0           0
           0 -2000000000           1           0           0           0
           0           0           4          52           0           0
           0           0           5           0           0           0
           0           0           0           0           0           1
           0           0           0           0           0           0
           0           0           0           0           0           0
           0           0           0           0           0           0
           0           0           0           0           0           0
           0           0           0           0
Num RLSW                                   I               52
RLSW                                       R   N=          52
  8.00000000E-01  7.20000000E-01  1.00000000E+00  8.10000000E-01  2.00000000E-01
  0.00000000E+00  0.00000000E+00  1.00000000E+00  0.00000000E+00  0.00000000E+00
  0.00000000E+00  0.00000000E+00  1.00000000E+00  0.00000000E+00  0.00000000E+00
  0.00000000E+00  0.00000000E+00  1.00000000E+00  0.00000000E+00  0.00000000E+00
  0.00000000E+00  0.00000000E+00  1.00000000E+00  0.00000000E+00  0.00000000E+00
  0.00000000E+00  0.00000000E+00  1.00000000E+00  0.00000000E+00  0.00000000E+00
  0.00000000E+00  0.00000000E+00  1.00000000E+00  0.00000000E+00  0.00000000E+00
  0.00000000E+00  0.00000000E+00  0.00000000E+00  1.00000000E+00  1.00000000E+00
  0.00000000E+00  1.00000000E+00  0.00000000E+00  0.00000000E+00  0.00000000E+00
  0.00000000E+00  0.00000000E+00  0.00000000E+00  0.00000000E+00  0.00000000E+00
  0.00000000E+00  0.00000000E+00
MxBond                                     I                4
NBond                                      I   N=          18
           3           3           3           3           3           3
           1           1           2           1           3           1
           1           1           4           1           1           1
IBond                                      I   N=          72
           2           6          15           0           1           3
          10           0           2           4           9           0
           3           5          11           0           4           6
           7           0           1           5          14           0
           5           0           0           0          11           0
           0           0           3          13           0           0
           2           0           0           0           4           8
          12           0          11           0           0           0
           9           0           0           0           6           0
           0           0           1          16          17          18
          15           0           0           0          15           0
           0           0          15           0           0           0
RBond                                      R   N=          72
  1.50000000E+00  1.50000000E+00  1.00000000E+00  0.00000000E+00  1.50000000E+00
  1.50000000E+00  1.00000000E+00  0.00000000E+00  1.50000000E+00  1.50000000E+00
  1.50000000E+00  0.00000000E+00  1.50000000E+00  1.50000000E+00  1.00000000E+00
  0.00000000E+00  1.50000000E+00  2.00000000E+00  1.00000000E+00  0.00000000E+00
  1.50000000E+00  2.00000000E+00  1.00000000E+00  0.00000000E+00  1.00000000E+00
  0.00000000E+00  0.00000000E+00  0.00000000E+00  2.00000000E+00  0.00000000E+00
  0.00000000E+00  0.00000000E+00  1.50000000E+00  1.00000000E+00  0.00000000E+00
  0.00000000E+00  1.00000000E+00  0.00000000E+00  0.00000000E+00  0.00000000E+00
  1.00000000E+00  2.00000000E+00  1.00000000E+00  0.00000000E+00  1.00000000E+00
  0.00000000E+00  0.00000000E+00  0.00000000E+00  1.00000000E+00  0.00000000E+00
  0.00000000E+00  0.00000000E+00  1.00000000E+00  0.00000000E+00  0.00000000E+00
  0.00000000E+00  1.00000000E+00  1.00000000E+00  1.00000000E+00  1.00000000E+00
  1.00000000E+00  0.00000000E+00  0.00000000E+00  0.00000000E+00  1.00000000E+00
  0.00000000E+00  0.00000000E+00  0.00000000E+00  1.00000000E+00  0.00000000E+00
  0.00000000E+00  0.00000000E+00
Virial Ratio                               R      2.003771963746591E+00
SCF Energy                                 R     -4.602481463839227E+02
Total Energy                               R     -4.602481463839227E+02
S**2                                       R     -3.268496584496461E-13
S**2 after annihilation                    R     -2.943778554253112E-11
RMS Density                                R      9.399349356326850E-09
Job Status                                 I                1
Nuclear derivative order                   I                0
External E-field                           R   N=          35
  0.00000000E+00  0.00000000E+00  0.00000000E+00  0.00000000E+00  0.00000000E+00
  0.00000000E+00  0.00000000E+00  0.00000000E+00  0.00000000E+00  0.00000000E+00
  0.00000000E+00  0.00000000E+00  0.00000000E+00  0.00000000E+00  0.00000000E+00
  0.00000000E+00  0.00000000E+00  0.00000000E+00  0.00000000E+00  0.00000000E+00
  0.00000000E+00  0.00000000E+00  0.00000000E+00  0.00000000E+00  0.00000000E+00
  0.00000000E+00  0.00000000E+00  0.00000000E+00  0.00000000E+00  0.00000000E+00
  0.00000000E+00  0.00000000E+00  0.00000000E+00  0.00000000E+00  0.00000000E+00
IOpCl                                      I                1
IROHF                                      I                0
Alpha Orbital Energies                     R   N=         228
 -1.91470950E+01 -1.91287556E+01 -1.02698802E+01 -1.02558881E+01 -1.02068397E+01